# Coordinates of a bcc lattice for 1363 spheres of diameter 30000000000.000000
1 atom types
8 atoms
-1.10e-3 8.83e-3 xlo xhi
-5.5e-4 5.5e-4 ylo yhi
-5.5e-4 5.5e-4 zlo zhi

Atoms

1 1 0.001 30000000000 0.0 0.0 0.0
2 1 0.001 30000000000 1.10E-3 0.0 0.0
3 1 0.001 30000000000 2.21E-3 0.0 0.0
4 1 0.001 30000000000 3.31e-3 0.0 0.0
5 1 0.001 30000000000 4.41e-3 0.0 0.0
6 1 0.001 30000000000 5.52e-3 0.0 0.0
7 1 0.001 30000000000 6.62e-3 0.0 0.0
8 1 0.001 30000000000 7.72e-3 0.0 0.0
