# Coordinates of a bcc lattice for 1363 spheres of diameter 30000000000.000000
1 atom types
4 atoms
-7.15e-4 6e-3 xlo xhi
-6.15e-4 6.15e-4 ylo yhi
-6.15e-4 6.15e-4 zlo zhi

Atoms

1 1 0.001 30000000000 0.0 0.0 0.0
2 1 0.001 30000000000 1.23e-3 0.0 0.0
3 1 0.001 30000000000 2.46e-3 0.0 0.0
4 1 0.001 30000000000 3.69e-3 0.0 0.0
