# Coordinates of a bcc lattice for 1363 spheres of diameter 30000000000.000000
1 atom types
4 atoms
-1.03e-3 8.24e-3 xlo xhi
-5.15e-4 5.15e-4 ylo yhi
-5.15e-4 5.15e-4 zlo zhi

Atoms

1 1 0.001 30000000000 0.0 0.0 0.0
2 1 0.001 30000000000 1.03e-3 0.0 0.0
3 1 0.001 30000000000 2.06e-3 0.0 0.0
4 1 0.001 30000000000 3.09e-3 0.0 0.0
5 1 0.001 30000000000 4.12e-3 0.0 0.0
6 1 0.001 30000000000 5.15e-3 0.0 0.0
7 1 0.001 30000000000 6.18e-3 0.0 0.0
8 1 0.001 30000000000 7.21e-3 0.0 0.0
